# vtk DataFile Version 4.0
hesp visualization file
ASCII
DATASET UNSTRUCTURED_GRID

POINTS 10 double
8.00000 5.00000 5.00000
7.42658 6.76336 5.00000
5.93970 7.85317 5.00000
4.06030 7.85317 5.00000
2.57342 6.76336 5.00000
2.00000 5.00000 5.00000
2.57342 3.23664 5.00000
4.06030 2.14683 5.00000
5.93970 2.14683 5.00000
7.42658 3.23664 5.00000
CELLS 0 0
CELL_TYPES 0
POINT_DATA 10
SCALARS m double
LOOKUP_TABLE default
1
1
1
1
1
1
1
1
1
1
VECTORS v double
0.0 0.0 0.0
0.0 0.0 0.0
0.0 0.0 0.0
0.0 0.0 0.0
0.0 0.0 0.0
0.0 0.0 0.0
0.0 0.0 0.0
0.0 0.0 0.0
0.0 0.0 0.0
0.0 0.0 0.0