# vtk DataFile Version 4.0
hesp visualization file
ASCII
DATASET UNSTRUCTURED_GRID
POINTS 2 double
14 5 5
7.3 5 5
0 5 5
CELLS 0 0
CELL_TYPES 0
POINT_DATA 2
SCALARS m double
LOOKUP_TABLE default
1
0.01
1

VECTORS v double
0.0 0.0 0.0
0.0 0.0 0.0
0.0 0.0 0.0
